ITEM: TIMESTEP
500000
ITEM: NUMBER OF ATOMS
22
ITEM: BOX BOUNDS pp pp pp
-1.0000000000000000e+02 1.0000000000000000e+02
-1.0000000000000000e+02 1.0000000000000000e+02
-1.0000000000000000e+02 1.0000000000000000e+02
ITEM: ATOMS id mass xu yu zu
1 1.008 1.62853 2.30841 0.0402133
2 12.01 2.57126 1.76461 0.100561
3 1.008 2.61892 0.885546 -0.542153
4 1.008 2.77569 1.47495 1.13129
5 12.01 3.63663 2.68912 -0.432678
6 16 4.5698 2.18779 -1.10653
7 14.01 3.46892 3.98524 -0.203134
8 1.008 2.84358 4.33176 0.510289
9 12.01 4.31963 5.05739 -0.752614
10 1.008 5.10363 4.55895 -1.32269
11 12.01 3.33864 5.7175 -1.80049
12 1.008 2.50254 6.29476 -1.40576
13 1.008 3.99393 6.36271 -2.38563
14 1.008 3.00002 4.9011 -2.4384
15 12.01 4.83735 6.01983 0.355421
16 16 4.1781 6.32915 1.3642
17 14.01 6.11753 6.4108 0.257033
18 1.008 6.64396 6.05264 -0.526989
19 12.01 6.81643 7.18296 1.23764
20 1.008 6.3077 8.13383 1.3962
21 1.008 6.97467 6.68138 2.19236
22 1.008 7.83985 7.38726 0.923016
ITEM: TIMESTEP
510000
ITEM: NUMBER OF ATOMS
22
ITEM: BOX BOUNDS pp pp pp
-1.0000000000000000e+02 1.0000000000000000e+02
-1.0000000000000000e+02 1.0000000000000000e+02
-1.0000000000000000e+02 1.0000000000000000e+02
ITEM: ATOMS id mass xu yu zu
1 1.008 3.96991 7.93609 -0.394461
2 12.01 4.82557 7.73834 0.251173
3 1.008 4.51036 8.20064 1.18659
4 1.008 5.71315 8.32924 0.025081
5 12.01 5.12336 6.35515 0.398839
6 16 6.23172 5.92202 0.0686579
7 14.01 4.10791 5.58739 0.972639
8 1.008 3.2015 5.99481 1.15303
9 12.01 4.10316 4.0975 1.01114
10 1.008 5.1482 3.84391 1.18904
11 12.01 3.14672 3.53412 2.03514
12 1.008 2.10843 3.63017 1.71762
13 1.008 3.39532 2.47403 2.08509
14 1.008 3.30303 4.10305 2.95164
15 12.01 3.88952 3.70019 -0.490966
16 16 2.7743 3.23532 -0.816726
17 14.01 4.94173 3.7102 -1.35637
18 1.008 5.82176 4.08311 -1.0299
19 12.01 4.78989 3.48489 -2.7963
20 1.008 3.92398 2.84796 -2.97688
21 1.008 4.62035 4.41711 -3.33511
22 1.008 5.61254 2.91069 -3.22249
ITEM: TIMESTEP
520000
ITEM: NUMBER OF ATOMS
22
ITEM: BOX BOUNDS pp pp pp
-1.0000000000000000e+02 1.0000000000000000e+02
-1.0000000000000000e+02 1.0000000000000000e+02
-1.0000000000000000e+02 1.0000000000000000e+02
ITEM: ATOMS id mass xu yu zu
1 1.008 3.125 7.27064 2.2471
2 12.01 4.18812 7.05228 2.34814
3 1.008 4.29246 6.56854 3.31933
4 1.008 4.57882 8.06748 2.27816
5 12.01 4.68836 6.32205 1.12494
6 16 5.00421 7.02116 0.153285
7 14.01 4.6429 5.02187 1.13276
8 1.008 4.37603 4.51411 1.96407
9 12.01 5.18721 4.35429 -0.0628798
10 1.008 5.73196 4.98393 -0.766409
11 12.01 6.2859 3.28263 0.359926
12 1.008 5.84868 2.52056 1.00509
13 1.008 6.7909 2.88724 -0.521424
14 1.008 7.06461 3.79563 0.924335
15 12.01 4.04314 3.69691 -0.770397
16 16 3.24041 3.00996 -0.146001
17 14.01 3.90774 4.02063 -2.04419
18 1.008 4.58976 4.74273 -2.22764
19 12.01 2.84632 3.59788 -2.92842
20 1.008 3.24738 2.99096 -3.74015
21 1.008 2.21441 2.88962 -2.39254
22 1.008 2.27582 4.41376 -3.37225
ITEM: TIMESTEP
530000
ITEM: NUMBER OF ATOMS
22
ITEM: BOX BOUNDS pp pp pp
-1.0000000000000000e+02 1.0000000000000000e+02
-1.0000000000000000e+02 1.0000000000000000e+02
-1.0000000000000000e+02 1.0000000000000000e+02
ITEM: ATOMS id mass xu yu zu
1 1.008 3.89241 4.28767 3.78814
2 12.01 3.2687 4.76615 3.03307
3 1.008 2.81455 5.67716 3.4228
4 1.008 2.48577 4.04452 2.79989
5 12.01 4.04422 5.1203 1.74553
6 16 4.31562 6.27898 1.40699
7 14.01 4.47799 4.10105 0.954953
8 1.008 4.18943 3.202 1.31347
9 12.01 5.40357 4.22152 -0.175057
10 1.008 6.12393 5.02409 -0.0167228
11 12.01 6.22765 2.90899 -0.154138
12 1.008 5.59553 2.05694 -0.404218
13 1.008 7.05524 3.01967 -0.854801
14 1.008 6.79346 2.85529 0.775954
15 12.01 4.70212 4.54224 -1.50139
16 16 4.82507 3.83006 -2.46501
17 14.01 3.85493 5.58591 -1.35781
18 1.008 3.65345 6.00086 -0.459303
19 12.01 2.93542 5.98124 -2.36691
20 1.008 2.33879 6.79169 -1.94822
21 1.008 3.50379 6.44471 -3.17329
22 1.008 2.32435 5.16821 -2.75892
ITEM: TIMESTEP
540000
ITEM: NUMBER OF ATOMS
22
ITEM: BOX BOUNDS pp pp pp
-1.0000000000000000e+02 1.0000000000000000e+02
-1.0000000000000000e+02 1.0000000000000000e+02
-1.0000000000000000e+02 1.0000000000000000e+02
ITEM: ATOMS id mass xu yu zu
1 1.008 2.77001 5.35902 3.49062
2 12.01 2.41568 5.32179 2.46049
3 1.008 1.96412 6.25278 2.11778
4 1.008 1.59612 4.62464 2.28616
5 12.01 3.4482 4.67598 1.51217
6 16 4.56622 4.37611 1.97429
7 14.01 3.06767 4.42678 0.297954
8 1.008 2.13644 4.67826 -0.00150703
9 12.01 3.97379 3.833 -0.754596
10 1.008 4.44286 2.97123 -0.279806
11 12.01 3.14088 3.25391 -1.89219
12 1.008 2.60726 4.08654 -2.35054
13 1.008 3.78571 2.8572 -2.67634
14 1.008 2.46195 2.45133 -1.60406
15 12.01 5.15479 4.73797 -1.18785
16 16 5.52439 4.67721 -2.40017
17 14.01 5.73134 5.56153 -0.309129
18 1.008 5.28389 5.69459 0.586518
19 12.01 6.84279 6.41986 -0.609144
20 1.008 6.56339 7.45734 -0.425649
21 1.008 7.62424 6.05691 0.0584644
22 1.008 7.10803 6.28714 -1.65802
ITEM: TIMESTEP
550000
ITEM: NUMBER OF ATOMS
22
ITEM: BOX BOUNDS pp pp pp
-1.0000000000000000e+02 1.0000000000000000e+02
-1.0000000000000000e+02 1.0000000000000000e+02
-1.0000000000000000e+02 1.0000000000000000e+02
ITEM: ATOMS id mass xu yu zu
1 1.008 4.86615 8.01646 2.19329
2 12.01 5.65757 7.57445 1.588
3 1.008 6.66568 7.73021 1.97214
4 1.008 5.638 7.9346 0.559389
5 12.01 5.4057 6.10864 1.43276
6 16 6.15856 5.23006 1.81681
7 14.01 4.32549 5.76873 0.689487
8 1.008 3.72971 6.47266 0.277615
9 12.01 4.01288 4.40128 0.311272
10 1.008 4.81636 3.75843 0.670801
11 12.01 2.74413 3.95632 1.06708
12 1.008 1.83924 4.44955 0.712123
13 1.008 2.60124 2.87762 1.00312
14 1.008 2.85177 4.14548 2.13513
15 12.01 3.80653 4.18015 -1.17814
16 16 3.06112 4.85541 -1.93304
17 14.01 4.46149 3.09296 -1.67675
18 1.008 5.20883 2.7411 -1.09556
19 12.01 4.30137 2.32366 -2.90566
20 1.008 4.04349 2.94488 -3.76338
21 1.008 5.22695 1.7837 -3.10533
22 1.008 3.5049 1.5995 -2.73426
ITEM: TIMESTEP
560000
ITEM: NUMBER OF ATOMS
22
ITEM: BOX BOUNDS pp pp pp
-1.0000000000000000e+02 1.0000000000000000e+02
-1.0000000000000000e+02 1.0000000000000000e+02
-1.0000000000000000e+02 1.0000000000000000e+02
ITEM: ATOMS id mass xu yu zu
1 1.008 6.32856 8.13897 -0.845767
2 12.01 5.85314 7.68867 0.0256121
3 1.008 4.8999 8.18527 0.206802
4 1.008 6.60768 7.87215 0.790528
5 12.01 5.61129 6.21452 -0.17587
6 16 6.09675 5.63989 -1.15032
7 14.01 4.84328 5.57356 0.731749
8 1.008 4.53845 6.08687 1.54642
9 12.01 4.79053 4.16995 0.746886
10 1.008 5.76309 3.81913 0.401702
11 12.01 4.62691 3.79721 2.17257
12 1.008 3.72427 4.26208 2.56909
13 1.008 4.39803 2.73271 2.22302
14 1.008 5.50231 3.99323 2.79172
15 12.01 3.61646 3.64577 -0.0531089
16 16 2.58022 3.13801 0.489469
17 14.01 3.5402 3.95381 -1.35393
18 1.008 4.25968 4.55606 -1.72774
19 12.01 2.47351 3.53001 -2.25243
20 1.008 1.54245 3.57332 -1.68731
21 1.008 2.41928 4.22762 -3.08819
22 1.008 2.79643 2.53301 -2.55212
ITEM: TIMESTEP
570000
ITEM: NUMBER OF ATOMS
22
ITEM: BOX BOUNDS pp pp pp
-1.0000000000000000e+02 1.0000000000000000e+02
-1.0000000000000000e+02 1.0000000000000000e+02
-1.0000000000000000e+02 1.0000000000000000e+02
ITEM: ATOMS id mass xu yu zu
1 1.008 6.09742 8.77938 -0.606499
2 12.01 5.97545 7.79385 -1.05595
3 1.008 6.93655 7.41602 -1.4047
4 1.008 5.33131 8.01954 -1.90582
5 12.01 5.34521 6.84811 -0.0809888
6 16 5.49382 7.03252 1.14377
7 14.01 4.60904 5.81001 -0.560851
8 1.008 4.48273 5.66067 -1.55175
9 12.01 3.99939 4.79353 0.315026
10 1.008 4.50642 4.78797 1.27991
11 12.01 2.51202 5.23359 0.608178
12 1.008 1.99023 5.41949 -0.330598
13 1.008 1.96422 4.55088 1.25775
14 1.008 2.60063 6.13116 1.22026
15 12.01 4.05202 3.33478 -0.352299
16 16 3.8832 3.22272 -1.58955
17 14.01 4.2629 2.34866 0.487437
18 1.008 4.61487 2.49186 1.42325
19 12.01 3.83732 1.03945 0.175472
20 1.008 4.39575 0.408736 0.867207
21 1.008 2.76983 1.00849 0.393747
22 1.008 4.0876 0.913317 -0.877886
ITEM: TIMESTEP
580000
ITEM: NUMBER OF ATOMS
22
ITEM: BOX BOUNDS pp pp pp
-1.0000000000000000e+02 1.0000000000000000e+02
-1.0000000000000000e+02 1.0000000000000000e+02
-1.0000000000000000e+02 1.0000000000000000e+02
ITEM: ATOMS id mass xu yu zu
1 1.008 6.67179 7.97312 0.0251027
2 12.01 5.62505 7.81222 0.283074
3 1.008 4.95969 8.29763 -0.430928
4 1.008 5.26439 8.18709 1.24096
5 12.01 5.35165 6.30275 0.324652
6 16 6.25609 5.51252 0.556302
7 14.01 4.06202 5.97067 0.23087
8 1.008 3.39625 6.73017 0.226743
9 12.01 3.53235 4.66574 0.666935
10 1.008 4.12857 4.48275 1.56088
11 12.01 2.01278 4.85392 1.04081
12 1.008 1.49699 5.14839 0.126823
13 1.008 1.62365 3.89605 1.38602
14 1.008 1.80794 5.61799 1.79072
15 12.01 3.73583 3.54921 -0.430027
16 16 2.72096 3.06133 -0.93477
17 14.01 4.99917 3.34562 -0.820066
18 1.008 5.76301 3.87293 -0.421829
19 12.01 5.56936 2.3298 -1.76503
20 1.008 6.64348 2.50214 -1.83345
21 1.008 5.42851 1.42318 -1.17652
22 1.008 5.05347 2.45122 -2.71751
ITEM: TIMESTEP
590000
ITEM: NUMBER OF ATOMS
22
ITEM: BOX BOUNDS pp pp pp
-1.0000000000000000e+02 1.0000000000000000e+02
-1.0000000000000000e+02 1.0000000000000000e+02
-1.0000000000000000e+02 1.0000000000000000e+02
ITEM: ATOMS id mass xu yu zu
1 1.008 3.99577 2.53939 3.28418
2 12.01 3.37214 2.64251 2.39618
3 1.008 2.35413 2.99316 2.56594
4 1.008 3.27515 1.66258 1.92881
5 12.01 4.13245 3.5302 1.36905
6 16 5.21286 4.04906 1.70582
7 14.01 3.58546 3.66961 0.185556
8 1.008 2.63586 3.39774 -0.0252604
9 12.01 4.30019 4.10478 -1.02758
10 1.008 5.26304 3.59985 -0.949725
11 12.01 3.59755 3.56278 -2.2452
12 1.008 2.59305 3.98517 -2.27088
13 1.008 4.05901 3.60254 -3.2319
14 1.008 3.42292 2.49926 -2.08231
15 12.01 4.6417 5.6294 -1.1581
16 16 4.51963 6.22466 -2.21103
17 14.01 5.08418 6.22896 -0.0334163
18 1.008 5.16392 5.59134 0.745805
19 12.01 5.4671 7.64966 0.0457387
20 1.008 4.77084 8.22363 0.657205
21 1.008 6.38105 7.81448 0.61637
22 1.008 5.53762 8.1259 -0.932178
ITEM: TIMESTEP
600000
ITEM: NUMBER OF ATOMS
22
ITEM: BOX BOUNDS pp pp pp
-1.0000000000000000e+02 1.0000000000000000e+02
-1.0000000000000000e+02 1.0000000000000000e+02
-1.0000000000000000e+02 1.0000000000000000e+02
ITEM: ATOMS id mass xu yu zu
1 1.008 2.19934 2.1762 1.22429
2 12.01 2.94233 1.79015 0.526426
3 1.008 2.55871 1.46399 -0.440298
4 1.008 3.53615 0.945081 0.874746
5 12.01 3.95619 2.87547 0.2102
6 16 4.98599 2.83594 0.908916
7 14.01 3.71642 3.81033 -0.753785
8 1.008 2.86845 3.84107 -1.30158
9 12.01 4.68781 4.80885 -1.16273
10 1.008 5.72362 4.46956 -1.15387
11 12.01 4.4303 5.03357 -2.71244
12 1.008 3.36119 5.21952 -2.81496
13 1.008 5.01719 5.86246 -3.10816
14 1.008 4.53053 4.07417 -3.21997
15 12.01 4.67598 6.12903 -0.315636
16 16 4.33511 7.16202 -0.794061
17 14.01 5.02561 5.93427 0.983362
18 1.008 5.22376 4.98699 1.27231
19 12.01 5.1915 6.97564 2.07255
20 1.008 4.77645 6.6034 3.00917
21 1.008 6.22756 7.23919 2.28518
22 1.008 4.50932 7.7922 1.83598
ITEM: TIMESTEP
610000
ITEM: NUMBER OF ATOMS
22
ITEM: BOX BOUNDS pp pp pp
-1.0000000000000000e+02 1.0000000000000000e+02
-1.0000000000000000e+02 1.0000000000000000e+02
-1.0000000000000000e+02 1.0000000000000000e+02
ITEM: ATOMS id mass xu yu zu
1 1.008 5.45345 1.58405 -1.41975
2 12.01 4.38316 1.57865 -1.21344
3 1.008 4.28928 0.877539 -0.384145
4 1.008 3.84438 1.22227 -2.0914
5 12.01 3.96361 2.98333 -0.598339
6 16 3.09109 3.56707 -1.17144
7 14.01 4.64776 3.4771 0.444736
8 1.008 5.44177 2.96694 0.804447
9 12.01 4.39639 4.71213 1.06725
10 1.008 3.36048 4.69799 1.40606
11 12.01 5.12297 4.86094 2.40521
12 1.008 6.17739 4.85543 2.12903
13 1.008 4.93361 5.87738 2.75031
14 1.008 5.00553 4.13806 3.21253
15 12.01 4.70495 5.94425 0.218768
16 16 5.72561 6.61157 0.465227
17 14.01 3.85154 6.2534 -0.740823
18 1.008 3.03092 5.67958 -0.872746
19 12.01 4.0295 7.29613 -1.67887
20 1.008 4.03853 7.10052 -2.75114
21 1.008 3.07168 7.80318 -1.5623
22 1.008 4.72853 8.026 -1.27053
ITEM: TIMESTEP
620000
ITEM: NUMBER OF ATOMS
22
ITEM: BOX BOUNDS pp pp pp
-1.0000000000000000e+02 1.0000000000000000e+02
-1.0000000000000000e+02 1.0000000000000000e+02
-1.0000000000000000e+02 1.0000000000000000e+02
ITEM: ATOMS id mass xu yu zu
1 1.008 3.92298 1.92149 -2.6349
2 12.01 3.52675 2.02079 -1.62431
3 1.008 4.22168 1.40484 -1.05355
4 1.008 2.50492 1.67661 -1.46459
5 12.01 3.84557 3.41657 -1.29246
6 16 4.68056 4.00427 -1.98554
7 14.01 3.27298 3.90407 -0.173284
8 1.008 2.66302 3.29027 0.347572
9 12.01 3.39392 5.29064 0.231351
10 1.008 3.13301 5.94214 -0.602664
11 12.01 2.2769 5.44353 1.19158
12 1.008 2.23111 4.60134 1.88204
13 1.008 2.40857 6.40568 1.6866
14 1.008 1.36833 5.39677 0.591223
15 12.01 4.8078 5.68677 0.750825
16 16 4.95495 6.05409 1.91635
17 14.01 5.85028 5.56981 -0.105312
18 1.008 5.64402 5.27957 -1.05047
19 12.01 7.16629 6.02445 0.197111
20 1.008 7.84531 5.83668 -0.634627
21 1.008 7.18558 7.09999 0.373016
22 1.008 7.44321 5.40492 1.05011
ITEM: TIMESTEP
630000
ITEM: NUMBER OF ATOMS
22
ITEM: BOX BOUNDS pp pp pp
-1.0000000000000000e+02 1.0000000000000000e+02
-1.0000000000000000e+02 1.0000000000000000e+02
-1.0000000000000000e+02 1.0000000000000000e+02
ITEM: ATOMS id mass xu yu zu
1 1.008 4.79339 8.26878 1.04637
2 12.01 5.41244 7.64942 1.69544
3 1.008 4.96933 7.84187 2.67254
4 1.008 6.39029 8.12451 1.61661
5 12.01 5.29153 6.1901 1.40461
6 16 6.03524 5.3729 2.00669
7 14.01 4.29388 5.74042 0.546958
8 1.008 3.90761 6.43405 -0.0773671
9 12.01 4.13304 4.36824 0.266749
10 1.008 5.01576 3.80989 0.578428
11 12.01 2.9291 3.83851 1.01605
12 1.008 1.97285 4.07498 0.549406
13 1.008 2.92295 2.75246 1.10861
14 1.008 2.92769 4.24544 2.02724
15 12.01 3.93474 4.06229 -1.239
16 16 3.41381 4.93208 -1.97667
17 14.01 4.26548 2.88736 -1.60392
18 1.008 4.54603 2.22533 -0.894612
19 12.01 4.24856 2.40803 -2.92881
20 1.008 3.27659 2.02574 -3.24062
21 1.008 4.57846 3.15519 -3.65064
22 1.008 4.96119 1.59525 -3.06897
ITEM: TIMESTEP
640000
ITEM: NUMBER OF ATOMS
22
ITEM: BOX BOUNDS pp pp pp
-1.0000000000000000e+02 1.0000000000000000e+02
-1.0000000000000000e+02 1.0000000000000000e+02
-1.0000000000000000e+02 1.0000000000000000e+02
ITEM: ATOMS id mass xu yu zu
1 1.008 4.1059 8.04631 1.33508
2 12.01 4.51088 7.37603 2.09325
3 1.008 3.81817 6.90389 2.78991
4 1.008 5.31836 7.82054 2.67505
5 12.01 5.03736 6.20866 1.28031
6 16 6.14845 6.17353 0.788124
7 14.01 4.23164 5.13608 1.20624
8 1.008 3.30114 5.50815 1.33208
9 12.01 4.50366 3.99915 0.363749
10 1.008 5.57885 3.86087 0.249995
11 12.01 3.91028 2.77682 1.1035
12 1.008 2.84617 2.90507 0.905288
13 1.008 4.2125 1.78234 0.775217
14 1.008 4.20043 2.95301 2.13929
15 12.01 3.99256 4.15474 -1.0525
16 16 3.08243 4.94514 -1.26739
17 14.01 4.51024 3.34673 -1.96807
18 1.008 5.26715 2.74333 -1.67984
19 12.01 4.04589 3.26847 -3.31133
20 1.008 4.01469 2.24973 -3.69771
21 1.008 3.09762 3.78798 -3.44919
22 1.008 4.81739 3.82149 -3.8471
ITEM: TIMESTEP
650000
ITEM: NUMBER OF ATOMS
22
ITEM: BOX BOUNDS pp pp pp
-1.0000000000000000e+02 1.0000000000000000e+02
-1.0000000000000000e+02 1.0000000000000000e+02
-1.0000000000000000e+02 1.0000000000000000e+02
ITEM: ATOMS id mass xu yu zu
1 1.008 6.24394 4.5453 -3.05925
2 12.01 6.21781 5.63249 -2.98542
3 1.008 5.66631 6.05666 -3.82449
4 1.008 7.21894 6.06267 -2.95742
5 12.01 5.39519 5.91644 -1.71593
6 16 5.30309 7.04988 -1.28292
7 14.01 4.71865 4.90802 -1.15192
8 1.008 4.86103 3.95031 -1.4394
9 12.01 3.87753 5.04986 0.0185715
10 1.008 4.11631 5.97282 0.547014
11 12.01 2.4834 5.33321 -0.415376
12 1.008 2.0128 4.38041 -0.657933
13 1.008 1.90009 5.74677 0.407323
14 1.008 2.43381 5.92619 -1.32863
15 12.01 3.99666 3.83691 0.873412
16 16 4.02196 2.72326 0.328791
17 14.01 4.0519 4.02301 2.17916
18 1.008 4.15288 4.99817 2.42199
19 12.01 3.92185 3.0019 3.17909
20 1.008 4.43568 3.16124 4.12709
21 1.008 2.85881 2.91668 3.40442
22 1.008 4.07344 2.03438 2.70053
ITEM: TIMESTEP
660000
ITEM: NUMBER OF ATOMS
22
ITEM: BOX BOUNDS pp pp pp
-1.0000000000000000e+02 1.0000000000000000e+02
-1.0000000000000000e+02 1.0000000000000000e+02
-1.0000000000000000e+02 1.0000000000000000e+02
ITEM: ATOMS id mass xu yu zu
1 1.008 2.71549 5.98997 3.1212
2 12.01 3.28207 5.06701 3.24459
3 1.008 2.62017 4.20104 3.25464
4 1.008 3.75445 5.12202 4.22537
5 12.01 4.3683 4.88831 2.22574
6 16 5.45504 4.60966 2.63114
7 14.01 4.07164 4.93449 0.940842
8 1.008 3.15447 5.23235 0.640543
9 12.01 4.95826 4.48377 -0.15898
10 1.008 5.93098 4.95354 -0.0132049
11 12.01 5.00125 2.93223 -0.257947
12 1.008 4.01954 2.48789 -0.093898
13 1.008 5.45328 2.53495 -1.16677
14 1.008 5.55947 2.5237 0.584428
15 12.01 4.32827 4.99034 -1.48833
16 16 3.21454 5.55778 -1.46486
17 14.01 4.98422 4.78198 -2.6005
18 1.008 5.85763 4.27591 -2.63469
19 12.01 4.34416 5.17286 -3.88723
20 1.008 3.27069 5.29449 -3.74231
21 1.008 4.72318 6.17457 -4.08982
22 1.008 4.7083 4.51573 -4.67697
ITEM: TIMESTEP
670000
ITEM: NUMBER OF ATOMS
22
ITEM: BOX BOUNDS pp pp pp
-1.0000000000000000e+02 1.0000000000000000e+02
-1.0000000000000000e+02 1.0000000000000000e+02
-1.0000000000000000e+02 1.0000000000000000e+02
ITEM: ATOMS id mass xu yu zu
1 1.008 2.97043 4.91191 3.7165
2 12.01 2.83505 4.41543 2.75563
3 1.008 1.86131 4.77267 2.42053
4 1.008 2.76365 3.34202 2.93111
5 12.01 3.95108 4.84997 1.78472
6 16 4.15944 6.05883 1.58802
7 14.01 4.59248 3.88657 1.13753
8 1.008 4.36758 2.95684 1.46175
9 12.01 5.3614 4.12261 -0.113214
10 1.008 6.17439 4.78496 0.184148
11 12.01 6.11299 2.90536 -0.488104
12 1.008 5.56698 1.98976 -0.260848
13 1.008 6.35828 2.90683 -1.55014
14 1.008 7.06843 2.7757 0.0202382
15 12.01 4.47877 4.67181 -1.24627
16 16 3.36336 4.0688 -1.53585
17 14.01 4.93021 5.75913 -1.85249
18 1.008 5.72974 6.2193 -1.44128
19 12.01 4.24114 6.56189 -2.86701
20 1.008 3.4775 5.99638 -3.401
21 1.008 3.84618 7.41063 -2.30869
22 1.008 4.97983 6.94349 -3.57187
ITEM: TIMESTEP
680000
ITEM: NUMBER OF ATOMS
22
ITEM: BOX BOUNDS pp pp pp
-1.0000000000000000e+02 1.0000000000000000e+02
-1.0000000000000000e+02 1.0000000000000000e+02
-1.0000000000000000e+02 1.0000000000000000e+02
ITEM: ATOMS id mass xu yu zu
1 1.008 3.02146 7.97782 0.788703
2 12.01 3.81043 7.6564 1.46864
3 1.008 3.52376 7.61966 2.51963
4 1.008 4.55077 8.44885 1.35907
5 12.01 4.46185 6.36205 0.994572
6 16 5.63123 6.38054 0.719496
7 14.01 3.70046 5.24144 0.916643
8 1.008 2.75235 5.25814 1.26436
9 12.01 4.29908 3.92401 0.59458
10 1.008 5.25516 3.81155 1.10585
11 12.01 3.51086 2.83682 1.41304
12 1.008 4.00475 1.86523 1.39927
13 1.008 3.6361 3.0809 2.46795
14 1.008 2.42838 2.78409 1.29657
15 12.01 4.47309 3.55554 -0.858444
16 16 4.12934 2.41868 -1.22091
17 14.01 4.8668 4.55087 -1.71439
18 1.008 5.0249 5.48961 -1.37692
19 12.01 5.02803 4.42002 -3.13445
20 1.008 5.98695 3.92132 -3.27545
21 1.008 4.27308 3.77202 -3.57971
22 1.008 5.1116 5.40107 -3.60206
ITEM: TIMESTEP
690000
ITEM: NUMBER OF ATOMS
22
ITEM: BOX BOUNDS pp pp pp
-1.0000000000000000e+02 1.0000000000000000e+02
-1.0000000000000000e+02 1.0000000000000000e+02
-1.0000000000000000e+02 1.0000000000000000e+02
ITEM: ATOMS id mass xu yu zu
1 1.008 2.39677 4.1701 3.69853
2 12.01 2.24239 4.31605 2.62944
3 1.008 1.68838 5.24728 2.51119
4 1.008 1.48294 3.5875 2.34566
5 12.01 3.56832 4.43107 1.91042
6 16 4.62034 4.5244 2.52602
7 14.01 3.55102 4.22298 0.623664
8 1.008 2.6806 4.27594 0.114106
9 12.01 4.68427 4.04747 -0.256857
10 1.008 5.61311 4.02467 0.313087
11 12.01 4.54512 2.68173 -0.97808
12 1.008 5.55144 2.33693 -1.2158
13 1.008 4.14726 1.83152 -0.424041
14 1.008 3.91182 2.88419 -1.8418
15 12.01 4.77983 5.19325 -1.26492
16 16 3.75407 5.75596 -1.69153
17 14.01 5.991 5.54761 -1.65948
18 1.008 6.79061 5.13246 -1.20301
19 12.01 6.19906 6.59117 -2.67807
20 1.008 5.60661 6.2707 -3.53502
21 1.008 5.70208 7.4469 -2.22109
22 1.008 7.26147 6.8154 -2.77347
ITEM: TIMESTEP
700000
ITEM: NUMBER OF ATOMS
22
ITEM: BOX BOUNDS pp pp pp
-1.0000000000000000e+02 1.0000000000000000e+02
-1.0000000000000000e+02 1.0000000000000000e+02
-1.0000000000000000e+02 1.0000000000000000e+02
ITEM: ATOMS id mass xu yu zu
1 1.008 2.93508 4.75568 3.36233
2 12.01 3.97406 4.44082 3.26492
3 1.008 3.99566 3.45827 3.73632
4 1.008 4.66927 5.00722 3.88458
5 12.01 4.43498 4.19569 1.85246
6 16 5.56058 3.71821 1.6543
7 14.01 3.58244 4.56882 0.897471
8 1.008 2.69148 4.9265 1.21108
9 12.01 3.68955 4.10976 -0.505065
10 1.008 4.30619 3.21109 -0.520702
11 12.01 2.31607 3.59759 -1.00173
12 1.008 2.45822 2.9536 -1.86958
13 1.008 1.88702 2.91903 -0.264459
14 1.008 1.70415 4.47932 -1.19202
15 12.01 4.41493 5.11683 -1.48543
16 16 4.04319 5.13653 -2.63983
17 14.01 5.52747 5.78728 -1.08325
18 1.008 5.89201 5.47837 -0.193431
19 12.01 6.29933 6.68272 -1.85252
20 1.008 5.51513 7.34473 -2.21978
21 1.008 7.02159 7.27757 -1.29341
22 1.008 6.85437 6.18653 -2.64865
ITEM: TIMESTEP
710000
ITEM: NUMBER OF ATOMS
22
ITEM: BOX BOUNDS pp pp pp
-1.0000000000000000e+02 1.0000000000000000e+02
-1.0000000000000000e+02 1.0000000000000000e+02
-1.0000000000000000e+02 1.0000000000000000e+02
ITEM: ATOMS id mass xu yu zu
1 1.008 5.77703 4.99058 -3.44485
2 12.01 4.98107 5.67103 -3.14229
3 1.008 4.443 6.18588 -3.93821
4 1.008 5.39176 6.50403 -2.57173
5 12.01 4.08287 5.12217 -2.04077
6 16 2.91912 5.48631 -2.07362
7 14.01 4.70984 4.32272 -1.16452
8 1.008 5.719 4.342 -1.12833
9 12.01 4.02501 3.77231 0.000549019
10 1.008 2.94046 3.85355 -0.0718552
11 12.01 4.27126 2.26991 0.165805
12 1.008 3.83936 2.00202 1.13007
13 1.008 3.74224 1.60524 -0.517165
14 1.008 5.32875 2.0112 0.219377
15 12.01 4.68107 4.57626 1.13178
16 16 5.93858 4.49314 1.22542
17 14.01 3.90422 5.31952 1.90293
18 1.008 2.92279 5.38027 1.6723
19 12.01 4.3477 6.21687 2.96932
20 1.008 3.7011 6.24126 3.84648
21 1.008 5.29976 5.8838 3.38252
22 1.008 4.54579 7.20159 2.54603
ITEM: TIMESTEP
720000
ITEM: NUMBER OF ATOMS
22
ITEM: BOX BOUNDS pp pp pp
-1.0000000000000000e+02 1.0000000000000000e+02
-1.0000000000000000e+02 1.0000000000000000e+02
-1.0000000000000000e+02 1.0000000000000000e+02
ITEM: ATOMS id mass xu yu zu
1 1.008 5.67088 1.14024 -0.400176
2 12.01 5.80544 1.92971 -1.13959
3 1.008 5.50424 1.51474 -2.10145
4 1.008 6.82286 2.29893 -1.26858
5 12.01 4.95562 3.1149 -0.870755
6 16 4.67536 3.84646 -1.81585
7 14.01 4.41014 3.31297 0.328802
8 1.008 4.69204 2.69353 1.07508
9 12.01 3.52488 4.44379 0.630409
10 1.008 2.79534 4.37264 -0.176321
11 12.01 2.81594 4.32853 1.99504
12 1.008 2.10494 5.14337 2.13152
13 1.008 2.34369 3.35048 2.08727
14 1.008 3.5662 4.33679 2.78569
15 12.01 4.15132 5.83027 0.464201
16 16 4.73641 6.28129 1.40922
17 14.01 4.13801 6.44418 -0.757489
18 1.008 3.87353 5.8938 -1.562
19 12.01 4.63759 7.75943 -1.04746
20 1.008 5.51134 7.55039 -1.66469
21 1.008 3.98569 8.29859 -1.7348
22 1.008 4.83759 8.30113 -0.122974
ITEM: TIMESTEP
730000
ITEM: NUMBER OF ATOMS
22
ITEM: BOX BOUNDS pp pp pp
-1.0000000000000000e+02 1.0000000000000000e+02
-1.0000000000000000e+02 1.0000000000000000e+02
-1.0000000000000000e+02 1.0000000000000000e+02
ITEM: ATOMS id mass xu yu zu
1 1.008 3.05158 2.86094 -3.17669
2 12.01 3.8729 2.30025 -2.73042
3 1.008 4.74823 2.34435 -3.37845
4 1.008 3.68675 1.23084 -2.63135
5 12.01 4.31223 2.7681 -1.34674
6 16 4.43562 1.97685 -0.361936
7 14.01 4.57714 4.04804 -1.11355
8 1.008 4.30442 4.78285 -1.75055
9 12.01 4.68074 4.60861 0.274019
10 1.008 3.98616 4.02825 0.881347
11 12.01 6.11446 4.47213 0.738105
12 1.008 6.26903 4.74589 1.78178
13 1.008 6.62425 3.525 0.561591
14 1.008 6.65147 5.12336 0.0484499
15 12.01 4.20629 6.06921 0.372313
16 16 4.2151 6.86907 -0.529327
17 14.01 3.92839 6.40024 1.63079
18 1.008 4.13053 5.7222 2.35155
19 12.01 3.58935 7.76776 2.08393
20 1.008 3.7821 8.51396 1.31314
21 1.008 2.50818 7.79123 2.22041
22 1.008 4.0915 8.06261 3.00535
ITEM: TIMESTEP
740000
ITEM: NUMBER OF ATOMS
22
ITEM: BOX BOUNDS pp pp pp
-1.0000000000000000e+02 1.0000000000000000e+02
-1.0000000000000000e+02 1.0000000000000000e+02
-1.0000000000000000e+02 1.0000000000000000e+02
ITEM: ATOMS id mass xu yu zu
1 1.008 5.52238 2.36652 -3.4042
2 12.01 4.66061 2.40479 -2.73786
3 1.008 4.76237 1.67071 -1.93856
4 1.008 3.74077 2.18814 -3.28105
5 12.01 4.59496 3.8913 -2.20645
6 16 5.149 4.83293 -2.8189
7 14.01 3.9045 4.02601 -1.03593
8 1.008 3.61715 3.16346 -0.595908
9 12.01 3.86942 5.22821 -0.204215
10 1.008 4.5147 6.03146 -0.559945
11 12.01 2.39455 5.81149 -0.22463
12 1.008 2.57595 6.82306 0.138591
13 1.008 2.05924 5.99408 -1.24558
14 1.008 1.64765 5.32988 0.406474
15 12.01 4.44091 5.01838 1.27221
16 16 4.28088 3.93276 1.78637
17 14.01 5.04318 6.0351 1.88432
18 1.008 5.13222 6.87922 1.33694
19 12.01 5.53937 6.17 3.25926
20 1.008 6.49216 5.64109 3.28303
21 1.008 5.63027 7.2092 3.57539
22 1.008 4.83114 5.67803 3.92595
ITEM: TIMESTEP
750000
ITEM: NUMBER OF ATOMS
22
ITEM: BOX BOUNDS pp pp pp
-1.0000000000000000e+02 1.0000000000000000e+02
-1.0000000000000000e+02 1.0000000000000000e+02
-1.0000000000000000e+02 1.0000000000000000e+02
ITEM: ATOMS id mass xu yu zu
1 1.008 3.97318 1.20419 -0.773557
2 12.01 2.99029 1.58957 -0.502409
3 1.008 2.33005 0.916525 0.0445911
4 1.008 2.44024 2.02476 -1.33677
5 12.01 3.33249 2.67766 0.406015
6 16 2.79977 2.82525 1.46908
7 14.01 4.20382 3.57251 -0.125594
8 1.008 4.52934 3.44206 -1.07276
9 12.01 4.70344 4.84 0.429003
10 1.008 4.01245 5.23032 1.1762
11 12.01 6.03925 4.51285 1.1623
12 1.008 6.25426 5.42377 1.72096
13 1.008 5.86416 3.68535 1.84984
14 1.008 6.84205 4.45542 0.427236
15 12.01 4.89126 5.98527 -0.638851
16 16 5.10743 5.5843 -1.79919
17 14.01 4.81954 7.24036 -0.191738
18 1.008 4.56905 7.34974 0.780586
19 12.01 5.02048 8.43987 -1.03782
20 1.008 5.39563 8.04716 -1.98289
21 1.008 4.09387 8.93227 -1.33285
22 1.008 5.73671 9.1743 -0.669407
ITEM: TIMESTEP
760000
ITEM: NUMBER OF ATOMS
22
ITEM: BOX BOUNDS pp pp pp
-1.0000000000000000e+02 1.0000000000000000e+02
-1.0000000000000000e+02 1.0000000000000000e+02
-1.0000000000000000e+02 1.0000000000000000e+02
ITEM: ATOMS id mass xu yu zu
1 1.008 2.66045 1.88744 -1.32832
2 12.01 3.56904 1.63687 -0.780828
3 1.008 4.36911 1.5777 -1.51872
4 1.008 3.33605 0.725288 -0.230525
5 12.01 3.87592 2.64611 0.263123
6 16 3.44969 2.59597 1.44533
7 14.01 4.49719 3.70753 -0.221887
8 1.008 4.82901 3.62587 -1.17232
9 12.01 4.80158 4.90297 0.519726
10 1.008 3.99641 5.03654 1.2422
11 12.01 6.22774 4.6817 1.16296
12 1.008 6.39366 5.49067 1.87438
13 1.008 6.21959 3.71099 1.65869
14 1.008 7.00537 4.71594 0.39993
15 12.01 4.79787 6.0943 -0.416725
16 16 5.70759 6.31573 -1.18674
17 14.01 3.62583 6.79319 -0.363609
18 1.008 2.93708 6.57744 0.342872
19 12.01 3.43452 7.94051 -1.23951
20 1.008 2.83427 7.56808 -2.06963
21 1.008 2.98533 8.72891 -0.63557
22 1.008 4.36917 8.30988 -1.66151
ITEM: TIMESTEP
770000
ITEM: NUMBER OF ATOMS
22
ITEM: BOX BOUNDS pp pp pp
-1.0000000000000000e+02 1.0000000000000000e+02
-1.0000000000000000e+02 1.0000000000000000e+02
-1.0000000000000000e+02 1.0000000000000000e+02
ITEM: ATOMS id mass xu yu zu
1 1.008 1.4078 3.33878 1.5743
2 12.01 2.22313 2.68186 1.87726
3 1.008 2.08915 1.67494 1.48198
4 1.008 2.26232 2.64866 2.96604
5 12.01 3.54769 3.1373 1.26199
6 16 4.53882 2.76235 1.81468
7 14.01 3.58736 3.8453 0.19907
8 1.008 2.70744 4.133 -0.204752
9 12.01 4.82333 4.42467 -0.415746
10 1.008 5.6498 4.37432 0.293124
11 12.01 5.24922 3.53605 -1.54062
12 1.008 6.15574 3.93103 -1.99922
13 1.008 5.47848 2.53713 -1.16958
14 1.008 4.42607 3.4002 -2.24209
15 12.01 4.67459 5.89725 -0.849961
16 16 3.58645 6.38362 -0.99847
17 14.01 5.77623 6.61682 -1.00167
18 1.008 6.60833 6.05392 -0.897697
19 12.01 5.88878 8.022 -1.23249
20 1.008 6.21957 8.20027 -2.25567
21 1.008 4.96277 8.5717 -1.06388
22 1.008 6.68033 8.33126 -0.549928
ITEM: TIMESTEP
780000
ITEM: NUMBER OF ATOMS
22
ITEM: BOX BOUNDS pp pp pp
-1.0000000000000000e+02 1.0000000000000000e+02
-1.0000000000000000e+02 1.0000000000000000e+02
-1.0000000000000000e+02 1.0000000000000000e+02
ITEM: ATOMS id mass xu yu zu
1 1.008 7.32123 7.99191 -0.915906
2 12.01 7.10094 7.03415 -0.444446
3 1.008 7.08917 7.19811 0.633088
4 1.008 7.92773 6.37758 -0.715421
5 12.01 5.80507 6.36661 -0.975674
6 16 5.29175 6.66814 -2.05872
7 14.01 5.3205 5.41432 -0.181405
8 1.008 5.96488 4.9754 0.460655
9 12.01 4.06753 4.73229 -0.476332
10 1.008 3.2851 5.42941 -0.776192
11 12.01 4.33433 3.76953 -1.66099
12 1.008 3.37589 3.28738 -1.85339
13 1.008 4.55238 4.27759 -2.60037
14 1.008 5.14372 3.05204 -1.52611
15 12.01 3.62793 3.84127 0.700467
16 16 4.30797 3.6869 1.74961
17 14.01 2.37705 3.3466 0.660655
18 1.008 1.94524 3.44145 -0.247451
19 12.01 1.72808 2.64279 1.74214
20 1.008 0.686722 2.42019 1.50949
21 1.008 2.2525 1.71257 1.96068
22 1.008 1.79161 3.29321 2.6145
ITEM: TIMESTEP
790000
ITEM: NUMBER OF ATOMS
22
ITEM: BOX BOUNDS pp pp pp
-1.0000000000000000e+02 1.0000000000000000e+02
-1.0000000000000000e+02 1.0000000000000000e+02
-1.0000000000000000e+02 1.0000000000000000e+02
ITEM: ATOMS id mass xu yu zu
1 1.008 3.72995 3.33942 3.47192
2 12.01 4.6739 3.60237 2.99451
3 1.008 5.14605 2.67669 2.66545
4 1.008 5.28146 4.05645 3.77731
5 12.01 4.43218 4.51665 1.80336
6 16 3.54988 5.37444 1.83324
7 14.01 5.30275 4.40413 0.781017
8 1.008 5.90683 3.59711 0.718623
9 12.01 5.33524 5.3116 -0.386098
10 1.008 5.14599 6.3338 -0.0583796
11 12.01 6.83415 5.26483 -0.835192
12 1.008 6.95664 6.09289 -1.53333
13 1.008 7.49991 5.62084 -0.0490013
14 1.008 7.04223 4.24959 -1.17297
15 12.01 4.29682 5.05408 -1.43725
16 16 4.6429 4.80804 -2.60239
17 14.01 3.03305 4.84111 -1.1085
18 1.008 2.80162 5.07202 -0.15288
19 12.01 1.95248 4.29573 -1.93106
20 1.008 1.1403 5.01981 -1.99566
21 1.008 2.38295 4.06012 -2.90435
22 1.008 1.50656 3.41305 -1.47266
ITEM: TIMESTEP
800000
ITEM: NUMBER OF ATOMS
22
ITEM: BOX BOUNDS pp pp pp
-1.0000000000000000e+02 1.0000000000000000e+02
-1.0000000000000000e+02 1.0000000000000000e+02
-1.0000000000000000e+02 1.0000000000000000e+02
ITEM: ATOMS id mass xu yu zu
1 1.008 7.29153 2.21157 -0.924365
2 12.01 7.10328 3.10281 -1.52297
3 1.008 7.15394 2.73675 -2.5484
4 1.008 7.95458 3.7755 -1.41865
5 12.01 5.77215 3.79612 -1.22698
6 16 5.35142 4.54476 -2.0875
7 14.01 5.00559 3.49629 -0.19141
8 1.008 5.26764 2.78471 0.475721
9 12.01 3.64669 4.06103 -0.0214065
10 1.008 3.15766 4.221 -0.982321
11 12.01 2.74972 3.13155 0.728547
12 1.008 1.8224 3.55335 1.11618
13 1.008 2.49484 2.30192 0.0691218
14 1.008 3.30355 2.71034 1.56756
15 12.01 3.66461 5.40595 0.769028
16 16 3.94611 5.43309 1.97371
17 14.01 3.4553 6.4935 0.0247606
18 1.008 3.44775 6.38826 -0.979713
19 12.01 3.24254 7.81296 0.629945
20 1.008 3.88915 8.57843 0.20094
21 1.008 2.20837 8.13751 0.51489
22 1.008 3.30929 7.78748 1.7176