ITEM: TIMESTEP
500000
ITEM: NUMBER OF ENTRIES
66
ITEM: BOX BOUNDS pp pp pp
-1.0000000000000000e+02 1.0000000000000000e+02
-1.0000000000000000e+02 1.0000000000000000e+02
-1.0000000000000000e+02 1.0000000000000000e+02
ITEM: ENTRIES c_1[1] c_1[2] c_1[3] c_1[4] c_1[5] c_2[*] 
4 2 5 6 10 96.3258 
4 2 5 6 3 96.3258 
4 2 5 6 11 96.3258 
4 2 5 7 3 -86.9782 
3 2 5 6 10 -22.0671 
3 2 5 6 3 -22.0671 
3 2 5 6 11 -22.0671 
3 2 5 7 3 154.629 
1 2 5 6 10 -143.291 
1 2 5 6 3 -143.291 
1 2 5 6 11 -143.291 
1 2 5 7 3 33.4055 
6 5 7 8 1 -165.346 
6 5 7 8 2 -165.346 
2 5 7 8 2 18.224 
6 5 7 9 2 2.84895 
2 5 7 9 2 -173.581 
5 7 9 10 3 -2.44322 
8 7 9 10 3 166.836 
8 7 9 11 3 -81.7503 
8 7 9 15 3 41.0772 
5 7 9 11 1 108.971 
5 7 9 11 4 108.971 
5 7 9 11 5 108.971 
5 7 9 11 6 108.971 
5 7 9 15 7 -128.202 
5 7 9 15 8 -128.202 
5 7 9 15 9 -128.202 
5 7 9 15 6 -128.202 
2 7 5 6 18 176.43 
10 9 11 12 12 -177.954 
10 9 11 13 12 -56.8333 
10 9 11 14 12 56.9197 
10 9 15 16 10 -155.435 
10 9 15 16 11 -155.435 
10 9 15 17 3 17.5583 
7 9 11 12 12 71.2495 
7 9 11 13 12 -167.629 
7 9 11 14 12 -53.8764 
5 9 7 8 19 169.279 
11 9 15 16 3 80.2133 
11 9 15 17 13 -106.794 
11 9 15 17 14 -106.794 
11 9 15 17 5 -106.794 
11 9 15 17 6 -106.794 
7 9 15 16 3 -34.4519 
7 9 15 17 15 138.541 
7 9 15 17 16 138.541 
7 9 15 17 17 138.541 
7 9 15 17 6 138.541 
14 11 9 15 12 -174.774 
13 11 9 15 12 71.4729 
12 11 9 15 12 -49.6482 
16 15 17 18 1 173.409 
16 15 17 18 2 173.409 
9 15 17 18 2 0.105595 
16 15 17 19 2 -0.307045 
9 15 17 19 2 -173.61 
15 17 19 20 3 -58.8733 
15 17 19 21 3 65.9928 
15 17 19 22 3 -179.088 
18 17 19 20 3 127.478 
18 17 19 21 3 -107.656 
18 17 19 22 3 7.26327 
9 17 15 16 18 173.303 
15 19 17 18 19 -173.649 
ITEM: TIMESTEP
510000
ITEM: NUMBER OF ENTRIES
66
ITEM: BOX BOUNDS pp pp pp
-1.0000000000000000e+02 1.0000000000000000e+02
-1.0000000000000000e+02 1.0000000000000000e+02
-1.0000000000000000e+02 1.0000000000000000e+02
ITEM: ENTRIES c_1[1] c_1[2] c_1[3] c_1[4] c_1[5] c_2[*] 
4 2 5 6 10 -11.2583 
4 2 5 6 3 -11.2583 
4 2 5 6 11 -11.2583 
4 2 5 7 3 166.48 
3 2 5 6 10 -123.875 
3 2 5 6 3 -123.875 
3 2 5 6 11 -123.875 
3 2 5 7 3 53.8639 
1 2 5 6 10 121.016 
1 2 5 6 3 121.016 
1 2 5 6 11 121.016 
1 2 5 7 3 -61.2456 
6 5 7 8 1 -175.375 
6 5 7 8 2 -175.375 
2 5 7 8 2 7.00656 
6 5 7 9 2 -13.265 
2 5 7 9 2 169.116 
5 7 9 10 3 37.9668 
8 7 9 10 3 -158.824 
8 7 9 11 3 -34.7167 
8 7 9 15 3 93.8739 
5 7 9 11 1 162.074 
5 7 9 11 4 162.074 
5 7 9 11 5 162.074 
5 7 9 11 6 162.074 
5 7 9 15 7 -69.3354 
5 7 9 15 8 -69.3354 
5 7 9 15 9 -69.3354 
5 7 9 15 6 -69.3354 
2 7 5 6 18 177.619 
10 9 11 12 12 -168.207 
10 9 11 13 12 -51.1082 
10 9 11 14 12 72.0224 
10 9 15 16 10 144.81 
10 9 15 16 11 144.81 
10 9 15 17 3 -27.1936 
7 9 11 12 12 73.7433 
7 9 11 13 12 -169.158 
7 9 11 14 12 -46.0274 
5 9 7 8 19 163.209 
11 9 15 16 3 17.8988 
11 9 15 17 13 -154.105 
11 9 15 17 14 -154.105 
11 9 15 17 5 -154.105 
11 9 15 17 6 -154.105 
7 9 15 16 3 -107.631 
7 9 15 17 15 80.3649 
7 9 15 17 16 80.3649 
7 9 15 17 17 80.3649 
7 9 15 17 6 80.3649 
14 11 9 15 12 -166.565 
13 11 9 15 12 70.3042 
12 11 9 15 12 -46.7944 
16 15 17 18 1 -178.882 
16 15 17 18 2 -178.882 
9 15 17 18 2 -7.20629 
16 15 17 19 2 14.776 
9 15 17 19 2 -173.549 
15 17 19 20 3 -28.6259 
15 17 19 21 3 89.9288 
15 17 19 22 3 -142.859 
18 17 19 20 3 164.985 
18 17 19 21 3 -76.4604 
18 17 19 22 3 50.7523 
9 17 15 16 18 -171.675 
15 19 17 18 19 -166.389 
ITEM: TIMESTEP
520000
ITEM: NUMBER OF ENTRIES
66
ITEM: BOX BOUNDS pp pp pp
-1.0000000000000000e+02 1.0000000000000000e+02
-1.0000000000000000e+02 1.0000000000000000e+02
-1.0000000000000000e+02 1.0000000000000000e+02
ITEM: ENTRIES c_1[1] c_1[2] c_1[3] c_1[4] c_1[5] c_2[*] 
4 2 5 6 10 -22.5849 
4 2 5 6 3 -22.5849 
4 2 5 6 11 -22.5849 
4 2 5 7 3 163.271 
3 2 5 6 10 -154.954 
3 2 5 6 3 -154.954 
3 2 5 6 11 -154.954 
3 2 5 7 3 30.9024 
1 2 5 6 10 83.7551 
1 2 5 6 3 83.7551 
1 2 5 6 11 83.7551 
1 2 5 7 3 -90.3889 
6 5 7 8 1 179.977 
6 5 7 8 2 179.977 
2 5 7 8 2 -6.44322 
6 5 7 9 2 8.55734 
2 5 7 9 2 -177.863 
5 7 9 10 3 10.2256 
8 7 9 10 3 -161.06 
8 7 9 11 3 -44.9891 
8 7 9 15 3 75.9665 
5 7 9 11 1 126.297 
5 7 9 11 4 126.297 
5 7 9 11 5 126.297 
5 7 9 11 6 126.297 
5 7 9 15 7 -112.748 
5 7 9 15 8 -112.748 
5 7 9 15 9 -112.748 
5 7 9 15 6 -112.748 
2 7 5 6 18 -173.579 
10 9 11 12 12 -174.863 
10 9 11 13 12 -47.427 
10 9 11 14 12 67.0026 
10 9 15 16 10 -175.169 
10 9 15 16 11 -175.169 
10 9 15 17 3 -1.45781 
7 9 11 12 12 60.5246 
7 9 11 13 12 -172.04 
7 9 11 14 12 -57.6101 
5 9 7 8 19 -171.286 
11 9 15 16 3 72.6032 
11 9 15 17 13 -113.685 
11 9 15 17 14 -113.685 
11 9 15 17 5 -113.685 
11 9 15 17 6 -113.685 
7 9 15 16 3 -47.8542 
7 9 15 17 15 125.858 
7 9 15 17 16 125.858 
7 9 15 17 17 125.858 
7 9 15 17 6 125.858 
14 11 9 15 12 -176.463 
13 11 9 15 12 69.1077 
12 11 9 15 12 -58.3281 
16 15 17 18 1 167.769 
16 15 17 18 2 167.769 
9 15 17 18 2 -5.67593 
16 15 17 19 2 -2.4163 
9 15 17 19 2 -175.861 
15 17 19 20 3 -116.537 
15 17 19 21 3 -4.93984 
15 17 19 22 3 121.572 
18 17 19 20 3 75.1975 
18 17 19 21 3 -173.206 
18 17 19 22 3 -46.6934 
9 17 15 16 18 173.445 
15 19 17 18 19 -168.266 
ITEM: TIMESTEP
530000
ITEM: NUMBER OF ENTRIES
66
ITEM: BOX BOUNDS pp pp pp
-1.0000000000000000e+02 1.0000000000000000e+02
-1.0000000000000000e+02 1.0000000000000000e+02
-1.0000000000000000e+02 1.0000000000000000e+02
ITEM: ENTRIES c_1[1] c_1[2] c_1[3] c_1[4] c_1[5] c_2[*] 
4 2 5 6 10 132.866 
4 2 5 6 3 132.866 
4 2 5 6 11 132.866 
4 2 5 7 3 -48.6117 
3 2 5 6 10 13.6842 
3 2 5 6 3 13.6842 
3 2 5 6 11 13.6842 
3 2 5 7 3 -167.794 
1 2 5 6 10 -109.734 
1 2 5 6 3 -109.734 
1 2 5 6 11 -109.734 
1 2 5 7 3 68.7879 
6 5 7 8 1 -179.027 
6 5 7 8 2 -179.027 
2 5 7 8 2 2.37057 
6 5 7 9 2 9.10776 
2 5 7 9 2 -169.495 
5 7 9 10 3 31.7722 
8 7 9 10 3 -139.326 
8 7 9 11 3 -25.4782 
8 7 9 15 3 101.383 
5 7 9 11 1 145.62 
5 7 9 11 4 145.62 
5 7 9 11 5 145.62 
5 7 9 11 6 145.62 
5 7 9 15 7 -87.5194 
5 7 9 15 8 -87.5194 
5 7 9 15 9 -87.5194 
5 7 9 15 6 -87.5194 
2 7 5 6 18 178.603 
10 9 11 12 12 -174.417 
10 9 11 13 12 -51.7683 
10 9 11 14 12 55.1363 
10 9 15 16 10 114.576 
10 9 15 16 11 114.576 
10 9 15 17 3 -72.7043 
7 9 11 12 12 67.7216 
7 9 11 13 12 -169.629 
7 9 11 14 12 -62.7246 
5 9 7 8 19 -171.098 
11 9 15 16 3 -2.02131 
11 9 15 17 13 170.699 
11 9 15 17 14 170.699 
11 9 15 17 5 170.699 
11 9 15 17 6 170.699 
7 9 15 16 3 -122.98 
7 9 15 17 15 49.7395 
7 9 15 17 16 49.7395 
7 9 15 17 17 49.7395 
7 9 15 17 6 49.7395 
14 11 9 15 12 171.855 
13 11 9 15 12 64.9503 
12 11 9 15 12 -57.6989 
16 15 17 18 1 165.454 
16 15 17 18 2 165.454 
9 15 17 18 2 -6.73774 
16 15 17 19 2 1.3222 
9 15 17 19 2 -170.869 
15 17 19 20 3 175.773 
15 17 19 21 3 -72.2132 
15 17 19 22 3 50.5002 
18 17 19 20 3 10.2722 
18 17 19 21 3 122.286 
18 17 19 22 3 -115.001 
9 17 15 16 18 172.191 
15 19 17 18 19 -165.501 
ITEM: TIMESTEP
540000
ITEM: NUMBER OF ENTRIES
66
ITEM: BOX BOUNDS pp pp pp
-1.0000000000000000e+02 1.0000000000000000e+02
-1.0000000000000000e+02 1.0000000000000000e+02
-1.0000000000000000e+02 1.0000000000000000e+02
ITEM: ENTRIES c_1[1] c_1[2] c_1[3] c_1[4] c_1[5] c_2[*] 
4 2 5 6 10 -126.165 
4 2 5 6 3 -126.165 
4 2 5 6 11 -126.165 
4 2 5 7 3 50.777 
3 2 5 6 10 127.834 
3 2 5 6 3 127.834 
3 2 5 6 11 127.834 
3 2 5 7 3 -55.2233 
1 2 5 6 10 -5.40304 
1 2 5 6 3 -5.40304 
1 2 5 6 11 -5.40304 
1 2 5 7 3 171.539 
6 5 7 8 1 178.452 
6 5 7 8 2 178.452 
2 5 7 8 2 1.71523 
6 5 7 9 2 -4.98333 
2 5 7 9 2 178.28 
5 7 9 10 3 48.8702 
8 7 9 10 3 -134.45 
8 7 9 11 3 -21.6886 
8 7 9 15 3 110.671 
5 7 9 11 1 161.631 
5 7 9 11 4 161.631 
5 7 9 11 5 161.631 
5 7 9 11 6 161.631 
5 7 9 15 7 -66.0087 
5 7 9 15 8 -66.0087 
5 7 9 15 9 -66.0087 
5 7 9 15 6 -66.0087 
2 7 5 6 18 176.737 
10 9 11 12 12 176.529 
10 9 11 13 12 -69.2362 
10 9 11 14 12 51.9685 
10 9 15 16 10 99.0633 
10 9 15 16 11 99.0633 
10 9 15 17 3 -82.1499 
7 9 11 12 12 63.5553 
7 9 11 13 12 177.791 
7 9 11 14 12 -61.0047 
5 9 7 8 19 176.68 
11 9 15 16 3 -15.9893 
11 9 15 17 13 162.797 
11 9 15 17 14 162.797 
11 9 15 17 5 162.797 
11 9 15 17 6 162.797 
7 9 15 16 3 -145.718 
7 9 15 17 15 33.0685 
7 9 15 17 16 33.0685 
7 9 15 17 17 33.0685 
7 9 15 17 6 33.0685 
14 11 9 15 12 166.872 
13 11 9 15 12 45.6678 
12 11 9 15 12 -68.5675 
16 15 17 18 1 168.465 
16 15 17 18 2 168.465 
9 15 17 18 2 -10.2629 
16 15 17 19 2 -2.35533 
9 15 17 19 2 178.917 
15 17 19 20 3 120.773 
15 17 19 21 3 -118.112 
15 17 19 22 3 0.800395 
18 17 19 20 3 -50.1779 
18 17 19 21 3 70.9375 
18 17 19 22 3 -170.15 
9 17 15 16 18 178.728 
15 19 17 18 19 -170.951 
ITEM: TIMESTEP
550000
ITEM: NUMBER OF ENTRIES
66
ITEM: BOX BOUNDS pp pp pp
-1.0000000000000000e+02 1.0000000000000000e+02
-1.0000000000000000e+02 1.0000000000000000e+02
-1.0000000000000000e+02 1.0000000000000000e+02
ITEM: ENTRIES c_1[1] c_1[2] c_1[3] c_1[4] c_1[5] c_2[*] 
4 2 5 6 10 121.575 
4 2 5 6 3 121.575 
4 2 5 6 11 121.575 
4 2 5 7 3 -51.4247 
3 2 5 6 10 7.43146 
3 2 5 6 3 7.43146 
3 2 5 6 11 7.43146 
3 2 5 7 3 -165.568 
1 2 5 6 10 -119.03 
1 2 5 6 3 -119.03 
1 2 5 6 11 -119.03 
1 2 5 7 3 67.9707 
6 5 7 8 1 -173.954 
6 5 7 8 2 -173.954 
2 5 7 8 2 -0.528424 
6 5 7 9 2 -0.421239 
2 5 7 9 2 173.004 
5 7 9 10 3 -3.61141 
8 7 9 10 3 170.291 
8 7 9 11 3 -75.1418 
8 7 9 15 3 47.3799 
5 7 9 11 1 110.956 
5 7 9 11 4 110.956 
5 7 9 11 5 110.956 
5 7 9 11 6 110.956 
5 7 9 15 7 -126.522 
5 7 9 15 8 -126.522 
5 7 9 15 9 -126.522 
5 7 9 15 6 -126.522 
2 7 5 6 18 -173.425 
10 9 11 12 12 -173.381 
10 9 11 13 12 -50.6449 
10 9 11 14 12 64.396 
10 9 15 16 10 -172.035 
10 9 15 16 11 -172.035 
10 9 15 17 3 11.4889 
7 9 11 12 12 70.6508 
7 9 11 13 12 -166.613 
7 9 11 14 12 -51.5726 
5 9 7 8 19 173.902 
11 9 15 16 3 72.339 
11 9 15 17 13 -104.137 
11 9 15 17 14 -104.137 
11 9 15 17 5 -104.137 
11 9 15 17 6 -104.137 
7 9 15 16 3 -50.0003 
7 9 15 17 15 133.523 
7 9 15 17 16 133.523 
7 9 15 17 17 133.523 
7 9 15 17 6 133.523 
14 11 9 15 12 -177.568 
13 11 9 15 12 67.3912 
12 11 9 15 12 -55.3446 
16 15 17 18 1 165.309 
16 15 17 18 2 165.309 
9 15 17 18 2 -17.9592 
16 15 17 19 2 -14.4133 
9 15 17 19 2 162.318 
15 17 19 20 3 36.9611 
15 17 19 21 3 159.117 
15 17 19 22 3 -83.45 
18 17 19 20 3 -142.767 
18 17 19 21 3 -20.6104 
18 17 19 22 3 96.8222 
9 17 15 16 18 -176.732 
15 19 17 18 19 -179.728 
ITEM: TIMESTEP
560000
ITEM: NUMBER OF ENTRIES
66
ITEM: BOX BOUNDS pp pp pp
-1.0000000000000000e+02 1.0000000000000000e+02
-1.0000000000000000e+02 1.0000000000000000e+02
-1.0000000000000000e+02 1.0000000000000000e+02
ITEM: ENTRIES c_1[1] c_1[2] c_1[3] c_1[4] c_1[5] c_2[*] 
4 2 5 6 10 -102.676 
4 2 5 6 3 -102.676 
4 2 5 6 11 -102.676 
4 2 5 7 3 78.0669 
3 2 5 6 10 129.945 
3 2 5 6 3 129.945 
3 2 5 6 11 129.945 
3 2 5 7 3 -49.3129 
1 2 5 6 10 9.42406 
1 2 5 6 3 9.42406 
1 2 5 6 11 9.42406 
1 2 5 7 3 -169.834 
6 5 7 8 1 175.154 
6 5 7 8 2 175.154 
2 5 7 8 2 -5.60747 
6 5 7 9 2 12.9693 
2 5 7 9 2 -167.792 
5 7 9 10 3 30.9686 
8 7 9 10 3 -131.038 
8 7 9 11 3 -15.5486 
8 7 9 15 3 103.392 
5 7 9 11 1 146.458 
5 7 9 11 4 146.458 
5 7 9 11 5 146.458 
5 7 9 11 6 146.458 
5 7 9 15 7 -94.6009 
5 7 9 15 8 -94.6009 
5 7 9 15 9 -94.6009 
5 7 9 15 6 -94.6009 
2 7 5 6 18 -179.239 
10 9 11 12 12 172.057 
10 9 11 13 12 -76.2841 
10 9 11 14 12 44.8339 
10 9 15 16 10 131.564 
10 9 15 16 11 131.564 
10 9 15 17 3 -61.6311 
7 9 11 12 12 58.1227 
7 9 11 13 12 169.782 
7 9 11 14 12 -69.1005 
5 9 7 8 19 -162.007 
11 9 15 16 3 9.09364 
11 9 15 17 13 175.898 
11 9 15 17 14 175.898 
11 9 15 17 5 175.898 
11 9 15 17 6 175.898 
7 9 15 16 3 -107.329 
7 9 15 17 15 59.4754 
7 9 15 17 16 59.4754 
7 9 15 17 17 59.4754 
7 9 15 17 6 59.4754 
14 11 9 15 12 170.584 
13 11 9 15 12 49.4662 
12 11 9 15 12 -62.1927 
16 15 17 18 1 165.215 
16 15 17 18 2 165.215 
9 15 17 18 2 -2.32779 
16 15 17 19 2 -12.2428 
9 15 17 19 2 -179.786 
15 17 19 20 3 38.2891 
15 17 19 21 3 156.278 
15 17 19 22 3 -83.8523 
18 17 19 20 3 -139.153 
18 17 19 21 3 -21.164 
18 17 19 22 3 98.7052 
9 17 15 16 18 167.543 
15 19 17 18 19 -177.442 
ITEM: TIMESTEP
570000
ITEM: NUMBER OF ENTRIES
66
ITEM: BOX BOUNDS pp pp pp
-1.0000000000000000e+02 1.0000000000000000e+02
-1.0000000000000000e+02 1.0000000000000000e+02
-1.0000000000000000e+02 1.0000000000000000e+02
ITEM: ENTRIES c_1[1] c_1[2] c_1[3] c_1[4] c_1[5] c_2[*] 
4 2 5 6 10 -139.935 
4 2 5 6 3 -139.935 
4 2 5 6 11 -139.935 
4 2 5 7 3 39.4224 
3 2 5 6 10 95.7824 
3 2 5 6 3 95.7824 
3 2 5 6 11 95.7824 
3 2 5 7 3 -84.8599 
1 2 5 6 10 -26.9665 
1 2 5 6 3 -26.9665 
1 2 5 6 11 -26.9665 
1 2 5 7 3 152.391 
6 5 7 8 1 179.674 
6 5 7 8 2 179.674 
2 5 7 8 2 0.328463 
6 5 7 9 2 -3.41104 
2 5 7 9 2 177.244 
5 7 9 10 3 -20.3636 
8 7 9 10 3 156.733 
8 7 9 11 3 -88.2262 
8 7 9 15 3 34.1599 
5 7 9 11 1 94.677 
5 7 9 11 4 94.677 
5 7 9 11 5 94.677 
5 7 9 11 6 94.677 
5 7 9 15 7 -142.937 
5 7 9 15 8 -142.937 
5 7 9 15 9 -142.937 
5 7 9 15 6 -142.937 
2 7 5 6 18 179.345 
10 9 11 12 12 170.715 
10 9 11 13 12 -62.1491 
10 9 11 14 12 49.6476 
10 9 15 16 10 -159.362 
10 9 15 16 11 -159.362 
10 9 15 17 3 21.2458 
7 9 11 12 12 53.2433 
7 9 11 13 12 -179.621 
7 9 11 14 12 -67.8239 
5 9 7 8 19 177.097 
11 9 15 16 3 83.3163 
11 9 15 17 13 -96.0756 
11 9 15 17 14 -96.0756 
11 9 15 17 5 -96.0756 
11 9 15 17 6 -96.0756 
7 9 15 16 3 -37.1743 
7 9 15 17 15 143.434 
7 9 15 17 16 143.434 
7 9 15 17 17 143.434 
7 9 15 17 6 143.434 
14 11 9 15 12 169.612 
13 11 9 15 12 57.815 
12 11 9 15 12 -69.321 
16 15 17 18 1 164.532 
16 15 17 18 2 164.532 
9 15 17 18 2 -16.1234 
16 15 17 19 2 -23.8563 
9 15 17 19 2 155.488 
15 17 19 20 3 163.189 
15 17 19 21 3 -79.6663 
15 17 19 22 3 41.7661 
18 17 19 20 3 -24.6611 
18 17 19 21 3 92.4835 
18 17 19 22 3 -146.084 
9 17 15 16 18 -179.345 
15 19 17 18 19 172.15 
ITEM: TIMESTEP
580000
ITEM: NUMBER OF ENTRIES
66
ITEM: BOX BOUNDS pp pp pp
-1.0000000000000000e+02 1.0000000000000000e+02
-1.0000000000000000e+02 1.0000000000000000e+02
-1.0000000000000000e+02 1.0000000000000000e+02
ITEM: ENTRIES c_1[1] c_1[2] c_1[3] c_1[4] c_1[5] c_2[*] 
4 2 5 6 10 -101.813 
4 2 5 6 3 -101.813 
4 2 5 6 11 -101.813 
4 2 5 7 3 71.5526 
3 2 5 6 10 148.249 
3 2 5 6 3 148.249 
3 2 5 6 11 148.249 
3 2 5 7 3 -38.385 
1 2 5 6 10 25.714 
1 2 5 6 3 25.714 
1 2 5 6 11 25.714 
1 2 5 7 3 -160.92 
6 5 7 8 1 167.743 
6 5 7 8 2 167.743 
2 5 7 8 2 -5.3232 
6 5 7 9 2 13.0917 
2 5 7 9 2 -159.974 
5 7 9 10 3 37.6245 
8 7 9 10 3 -117.321 
8 7 9 11 3 -1.00086 
8 7 9 15 3 122.769 
5 7 9 11 1 153.945 
5 7 9 11 4 153.945 
5 7 9 11 5 153.945 
5 7 9 11 6 153.945 
5 7 9 15 7 -82.2851 
5 7 9 15 8 -82.2851 
5 7 9 15 9 -82.2851 
5 7 9 15 6 -82.2851 
2 7 5 6 18 173.066 
10 9 11 12 12 173.426 
10 9 11 13 12 -68.6811 
10 9 11 14 12 54.1863 
10 9 15 16 10 131.492 
10 9 15 16 11 131.492 
10 9 15 17 3 -55.9061 
7 9 11 12 12 63.4144 
7 9 11 13 12 -178.693 
7 9 11 14 12 -55.8254 
5 9 7 8 19 -154.946 
11 9 15 16 3 6.23776 
11 9 15 17 13 178.84 
11 9 15 17 14 178.84 
11 9 15 17 5 178.84 
11 9 15 17 6 178.84 
7 9 15 16 3 -115.358 
7 9 15 17 15 57.2445 
7 9 15 17 16 57.2445 
7 9 15 17 17 57.2445 
7 9 15 17 6 57.2445 
14 11 9 15 12 -179.619 
13 11 9 15 12 57.5133 
12 11 9 15 12 -60.3796 
16 15 17 18 1 172.436 
16 15 17 18 2 172.436 
9 15 17 18 2 0.640897 
16 15 17 19 2 -12.2625 
9 15 17 19 2 175.942 
15 17 19 20 3 178.978 
15 17 19 21 3 -69.3444 
15 17 19 22 3 56.777 
18 17 19 20 3 -5.24917 
18 17 19 21 3 106.428 
18 17 19 22 3 -127.45 
9 17 15 16 18 171.795 
15 19 17 18 19 175.772 
ITEM: TIMESTEP
590000
ITEM: NUMBER OF ENTRIES
66
ITEM: BOX BOUNDS pp pp pp
-1.0000000000000000e+02 1.0000000000000000e+02
-1.0000000000000000e+02 1.0000000000000000e+02
-1.0000000000000000e+02 1.0000000000000000e+02
ITEM: ENTRIES c_1[1] c_1[2] c_1[3] c_1[4] c_1[5] c_2[*] 
4 2 5 6 10 -121.164 
4 2 5 6 3 -121.164 
4 2 5 6 11 -121.164 
4 2 5 7 3 58.1786 
3 2 5 6 10 123.92 
3 2 5 6 3 123.92 
3 2 5 6 11 123.92 
3 2 5 7 3 -56.7371 
1 2 5 6 10 -5.17126 
1 2 5 6 3 -5.17126 
1 2 5 6 11 -5.17126 
1 2 5 7 3 174.172 
6 5 7 8 1 -167.891 
6 5 7 8 2 -167.891 
2 5 7 8 2 12.8049 
6 5 7 9 2 18.6946 
2 5 7 9 2 -160.61 
5 7 9 10 3 39.5103 
8 7 9 10 3 -134.598 
8 7 9 11 3 -20.0819 
8 7 9 15 3 109.908 
5 7 9 11 1 154.026 
5 7 9 11 4 154.026 
5 7 9 11 5 154.026 
5 7 9 11 6 154.026 
5 7 9 15 7 -75.9846 
5 7 9 15 8 -75.9846 
5 7 9 15 9 -75.9846 
5 7 9 15 6 -75.9846 
2 7 5 6 18 179.304 
10 9 11 12 12 174.149 
10 9 11 13 12 -56.3865 
10 9 11 14 12 62.8932 
10 9 15 16 10 106.902 
10 9 15 16 11 106.902 
10 9 15 17 3 -72.7245 
7 9 11 12 12 62.3523 
7 9 11 13 12 -168.183 
7 9 11 14 12 -48.9037 
5 9 7 8 19 -174.108 
11 9 15 16 3 -10.1093 
11 9 15 17 13 170.264 
11 9 15 17 14 170.264 
11 9 15 17 5 170.264 
11 9 15 17 6 170.264 
7 9 15 16 3 -138.619 
7 9 15 17 15 41.755 
7 9 15 17 16 41.755 
7 9 15 17 17 41.755 
7 9 15 17 6 41.755 
14 11 9 15 12 178.51 
13 11 9 15 12 59.2298 
12 11 9 15 12 -70.2345 
16 15 17 18 1 -177.73 
16 15 17 18 2 -177.73 
9 15 17 18 2 1.89298 
16 15 17 19 2 -0.155614 
9 15 17 19 2 179.468 
15 17 19 20 3 111.682 
15 17 19 21 3 -137.18 
15 17 19 22 3 -10.8352 
18 17 19 20 3 -70.9867 
18 17 19 21 3 40.1508 
18 17 19 22 3 166.496 
9 17 15 16 18 -179.623 
15 19 17 18 19 177.331 
ITEM: TIMESTEP
600000
ITEM: NUMBER OF ENTRIES
66
ITEM: BOX BOUNDS pp pp pp
-1.0000000000000000e+02 1.0000000000000000e+02
-1.0000000000000000e+02 1.0000000000000000e+02
-1.0000000000000000e+02 1.0000000000000000e+02
ITEM: ENTRIES c_1[1] c_1[2] c_1[3] c_1[4] c_1[5] c_2[*] 
4 2 5 6 10 -30.2334 
4 2 5 6 3 -30.2334 
4 2 5 6 11 -30.2334 
4 2 5 7 3 150.608 
3 2 5 6 10 -139.726 
3 2 5 6 3 -139.726 
3 2 5 6 11 -139.726 
3 2 5 7 3 41.115 
1 2 5 6 10 95.1724 
1 2 5 6 3 95.1724 
1 2 5 6 11 95.1724 
1 2 5 7 3 -83.9863 
6 5 7 8 1 -178.799 
6 5 7 8 2 -178.799 
2 5 7 8 2 0.27322 
6 5 7 9 2 5.52312 
2 5 7 9 2 -175.405 
5 7 9 10 3 35.2233 
8 7 9 10 3 -140.866 
8 7 9 11 3 -29.6484 
8 7 9 15 3 96.6875 
5 7 9 11 1 146.441 
5 7 9 11 4 146.441 
5 7 9 11 5 146.441 
5 7 9 11 6 146.441 
5 7 9 15 7 -87.223 
5 7 9 15 8 -87.223 
5 7 9 15 9 -87.223 
5 7 9 15 6 -87.223 
2 7 5 6 18 -179.072 
10 9 11 12 12 171.02 
10 9 11 13 12 -67.3532 
10 9 11 14 12 62.9332 
10 9 15 16 10 119.746 
10 9 15 16 11 119.746 
10 9 15 17 3 -63.1059 
7 9 11 12 12 50.8836 
7 9 11 13 12 172.511 
7 9 11 14 12 -57.2028 
5 9 7 8 19 -176.09 
11 9 15 16 3 8.8654 
11 9 15 17 13 -173.986 
11 9 15 17 14 -173.986 
11 9 15 17 5 -173.986 
11 9 15 17 6 -173.986 
7 9 15 16 3 -112.855 
7 9 15 17 15 64.2932 
7 9 15 17 16 64.2932 
7 9 15 17 17 64.2932 
7 9 15 17 6 64.2932 
14 11 9 15 12 175.894 
13 11 9 15 12 45.6071 
12 11 9 15 12 -76.0201 
16 15 17 18 1 175.192 
16 15 17 18 2 175.192 
9 15 17 18 2 -1.80161 
16 15 17 19 2 -6.33929 
9 15 17 19 2 176.667 
15 17 19 20 3 139.387 
15 17 19 21 3 -101.521 
15 17 19 22 3 29.7037 
18 17 19 20 3 -42.1106 
18 17 19 21 3 76.9817 
18 17 19 22 3 -151.794 
9 17 15 16 18 176.994 
15 19 17 18 19 178.502 
ITEM: TIMESTEP
610000
ITEM: NUMBER OF ENTRIES
66
ITEM: BOX BOUNDS pp pp pp
-1.0000000000000000e+02 1.0000000000000000e+02
-1.0000000000000000e+02 1.0000000000000000e+02
-1.0000000000000000e+02 1.0000000000000000e+02
ITEM: ENTRIES c_1[1] c_1[2] c_1[3] c_1[4] c_1[5] c_2[*] 
4 2 5 6 10 -1.50286 
4 2 5 6 3 -1.50286 
4 2 5 6 11 -1.50286 
4 2 5 7 3 -176.988 
3 2 5 6 10 -125.527 
3 2 5 6 3 -125.527 
3 2 5 6 11 -125.527 
3 2 5 7 3 58.9872 
1 2 5 6 10 124.378 
1 2 5 6 3 124.378 
1 2 5 6 11 124.378 
1 2 5 7 3 -51.1074 
6 5 7 8 1 -172.834 
6 5 7 8 2 -172.834 
2 5 7 8 2 2.24794 
6 5 7 9 2 3.81649 
2 5 7 9 2 178.898 
5 7 9 10 3 57.572 
8 7 9 10 3 -125.653 
8 7 9 11 3 -16.028 
8 7 9 15 3 108.863 
5 7 9 11 1 167.197 
5 7 9 11 4 167.197 
5 7 9 11 5 167.197 
5 7 9 11 6 167.197 
5 7 9 15 7 -67.9126 
5 7 9 15 8 -67.9126 
5 7 9 15 9 -67.9126 
5 7 9 15 6 -67.9126 
2 7 5 6 18 -175.082 
10 9 11 12 12 178.602 
10 9 11 13 12 -71.2535 
10 9 11 14 12 58.3129 
10 9 15 16 10 132.057 
10 9 15 16 11 132.057 
10 9 15 17 3 -47.2222 
7 9 11 12 12 64.7674 
7 9 11 13 12 174.912 
7 9 11 14 12 -55.5218 
5 9 7 8 19 176.775 
11 9 15 16 3 22.3116 
11 9 15 17 13 -156.968 
11 9 15 17 14 -156.968 
11 9 15 17 5 -156.968 
11 9 15 17 6 -156.968 
7 9 15 16 3 -104.977 
7 9 15 17 15 75.7442 
7 9 15 17 16 75.7442 
7 9 15 17 17 75.7442 
7 9 15 17 6 75.7442 
14 11 9 15 12 175.802 
13 11 9 15 12 46.2357 
12 11 9 15 12 -63.9087 
16 15 17 18 1 -178.584 
16 15 17 18 2 -178.584 
9 15 17 18 2 0.663488 
16 15 17 19 2 5.61634 
9 15 17 19 2 -175.136 
15 17 19 20 3 121.797 
15 17 19 21 3 -128.769 
15 17 19 22 3 -22.2904 
18 17 19 20 3 -54.1288 
18 17 19 21 3 55.3044 
18 17 19 22 3 161.783 
9 17 15 16 18 -179.248 
15 19 17 18 19 -175.926 
ITEM: TIMESTEP
620000
ITEM: NUMBER OF ENTRIES
66
ITEM: BOX BOUNDS pp pp pp
-1.0000000000000000e+02 1.0000000000000000e+02
-1.0000000000000000e+02 1.0000000000000000e+02
-1.0000000000000000e+02 1.0000000000000000e+02
ITEM: ENTRIES c_1[1] c_1[2] c_1[3] c_1[4] c_1[5] c_2[*] 
4 2 5 6 10 -145.996 
4 2 5 6 3 -145.996 
4 2 5 6 11 -145.996 
4 2 5 7 3 39.5223 
3 2 5 6 10 89.9677 
3 2 5 6 3 89.9677 
3 2 5 6 11 89.9677 
3 2 5 7 3 -84.5142 
1 2 5 6 10 -16.334 
1 2 5 6 3 -16.334 
1 2 5 6 11 -16.334 
1 2 5 7 3 169.184 
6 5 7 8 1 -174.786 
6 5 7 8 2 -174.786 
2 5 7 8 2 -0.765685 
6 5 7 9 2 11.3385 
2 5 7 9 2 -174.641 
5 7 9 10 3 50.7151 
8 7 9 10 3 -123.072 
8 7 9 11 3 -12.2076 
8 7 9 15 3 114.494 
5 7 9 11 1 161.58 
5 7 9 11 4 161.58 
5 7 9 11 5 161.58 
5 7 9 11 6 161.58 
5 7 9 15 7 -71.7189 
5 7 9 15 8 -71.7189 
5 7 9 15 9 -71.7189 
5 7 9 15 6 -71.7189 
2 7 5 6 18 -174.021 
10 9 11 12 12 159.511 
10 9 11 13 12 -75.851 
10 9 11 14 12 44.6463 
10 9 15 16 10 120.353 
10 9 15 16 11 120.353 
10 9 15 17 3 -61.7079 
7 9 11 12 12 44.8991 
7 9 11 13 12 169.537 
7 9 11 14 12 -69.9658 
5 9 7 8 19 -173.787 
11 9 15 16 3 2.60363 
11 9 15 17 13 -179.457 
11 9 15 17 14 -179.457 
11 9 15 17 5 -179.457 
11 9 15 17 6 -179.457 
7 9 15 16 3 -116.63 
7 9 15 17 15 61.31 
7 9 15 17 16 61.31 
7 9 15 17 17 61.31 
7 9 15 17 6 61.31 
14 11 9 15 12 164.567 
13 11 9 15 12 44.07 
12 11 9 15 12 -80.5678 
16 15 17 18 1 -178.836 
16 15 17 18 2 -178.836 
9 15 17 18 2 3.27148 
16 15 17 19 2 -8.70628 
9 15 17 19 2 173.401 
15 17 19 20 3 -179.609 
15 17 19 21 3 -61.2244 
15 17 19 22 3 62.9582 
18 17 19 20 3 -9.59767 
18 17 19 21 3 108.787 
18 17 19 22 3 -127.031 
9 17 15 16 18 177.892 
15 19 17 18 19 170.011 
ITEM: TIMESTEP
630000
ITEM: NUMBER OF ENTRIES
66
ITEM: BOX BOUNDS pp pp pp
-1.0000000000000000e+02 1.0000000000000000e+02
-1.0000000000000000e+02 1.0000000000000000e+02
-1.0000000000000000e+02 1.0000000000000000e+02
ITEM: ENTRIES c_1[1] c_1[2] c_1[3] c_1[4] c_1[5] c_2[*] 
4 2 5 6 10 53.5607 
4 2 5 6 3 53.5607 
4 2 5 6 11 53.5607 
4 2 5 7 3 -131.165 
3 2 5 6 10 -73.8832 
3 2 5 6 3 -73.8832 
3 2 5 6 11 -73.8832 
3 2 5 7 3 101.391 
1 2 5 6 10 174.167 
1 2 5 6 3 174.167 
1 2 5 6 11 174.167 
1 2 5 7 3 -10.5594 
6 5 7 8 1 -164.411 
6 5 7 8 2 -164.411 
2 5 7 8 2 20.3639 
6 5 7 9 2 -3.63101 
2 5 7 9 2 -178.856 
5 7 9 10 3 -15.0574 
8 7 9 10 3 144.884 
8 7 9 11 3 -95.2756 
8 7 9 15 3 25.5917 
5 7 9 11 1 104.783 
5 7 9 11 4 104.783 
5 7 9 11 5 104.783 
5 7 9 11 6 104.783 
5 7 9 15 7 -134.35 
5 7 9 15 8 -134.35 
5 7 9 15 9 -134.35 
5 7 9 15 6 -134.35 
2 7 5 6 18 175.225 
10 9 11 12 12 -160.079 
10 9 11 13 12 -40.8178 
10 9 11 14 12 78.4077 
10 9 15 16 10 -149.678 
10 9 15 16 11 -149.678 
10 9 15 17 3 33.8695 
7 9 11 12 12 79.1115 
7 9 11 13 12 -161.627 
7 9 11 14 12 -42.4016 
5 9 7 8 19 159.942 
11 9 15 16 3 93.6049 
11 9 15 17 13 -82.8476 
11 9 15 17 14 -82.8476 
11 9 15 17 5 -82.8476 
11 9 15 17 6 -82.8476 
7 9 15 16 3 -28.0344 
7 9 15 17 15 155.513 
7 9 15 17 16 155.513 
7 9 15 17 17 155.513 
7 9 15 17 6 155.513 
14 11 9 15 12 -166.558 
13 11 9 15 12 74.2165 
12 11 9 15 12 -45.0449 
16 15 17 18 1 -170.787 
16 15 17 18 2 -170.787 
9 15 17 18 2 5.41408 
16 15 17 19 2 7.75431 
9 15 17 19 2 -176.044 
15 17 19 20 3 -85.5853 
15 17 19 21 3 38.5594 
15 17 19 22 3 154.067 
18 17 19 20 3 92.9855 
18 17 19 21 3 -142.87 
18 17 19 22 3 -27.362 
9 17 15 16 18 -176.201 
15 19 17 18 19 178.571 
ITEM: TIMESTEP
640000
ITEM: NUMBER OF ENTRIES
66
ITEM: BOX BOUNDS pp pp pp
-1.0000000000000000e+02 1.0000000000000000e+02
-1.0000000000000000e+02 1.0000000000000000e+02
-1.0000000000000000e+02 1.0000000000000000e+02
ITEM: ENTRIES c_1[1] c_1[2] c_1[3] c_1[4] c_1[5] c_2[*] 
4 2 5 6 10 -34.9347 
4 2 5 6 3 -34.9347 
4 2 5 6 11 -34.9347 
4 2 5 7 3 140.229 
3 2 5 6 10 -149.842 
3 2 5 6 3 -149.842 
3 2 5 6 11 -149.842 
3 2 5 7 3 25.3217 
1 2 5 6 10 86.318 
1 2 5 6 3 86.318 
1 2 5 6 11 86.318 
1 2 5 7 3 -98.5186 
6 5 7 8 1 -158.162 
6 5 7 8 2 -158.162 
2 5 7 8 2 26.4865 
6 5 7 9 2 -11.5497 
2 5 7 9 2 173.099 
5 7 9 10 3 30.5306 
8 7 9 10 3 171.365 
8 7 9 11 3 -70.7384 
8 7 9 15 3 54.4862 
5 7 9 11 1 148.427 
5 7 9 11 4 148.427 
5 7 9 11 5 148.427 
5 7 9 11 6 148.427 
5 7 9 15 7 -86.348 
5 7 9 15 8 -86.348 
5 7 9 15 9 -86.348 
5 7 9 15 6 -86.348 
2 7 5 6 18 175.352 
10 9 11 12 12 -165.021 
10 9 11 13 12 -46.3857 
10 9 11 14 12 76.3932 
10 9 15 16 10 -142.904 
10 9 15 16 11 -142.904 
10 9 15 17 3 41.5821 
7 9 11 12 12 76.2989 
7 9 11 13 12 -165.066 
7 9 11 14 12 -42.2873 
5 9 7 8 19 140.834 
11 9 15 16 3 98.3473 
11 9 15 17 13 -77.1664 
11 9 15 17 14 -77.1664 
11 9 15 17 5 -77.1664 
11 9 15 17 6 -77.1664 
7 9 15 16 3 -22.6177 
7 9 15 17 15 161.869 
7 9 15 17 16 161.869 
7 9 15 17 17 161.869 
7 9 15 17 6 161.869 
14 11 9 15 12 -167.632 
13 11 9 15 12 69.5895 
12 11 9 15 12 -49.0453 
16 15 17 18 1 179.276 
16 15 17 18 2 179.276 
9 15 17 18 2 -5.47912 
16 15 17 19 2 -1.89128 
9 15 17 19 2 173.354 
15 17 19 20 3 -139.813 
15 17 19 21 3 -11.737 
15 17 19 22 3 103.679 
18 17 19 20 3 39.0042 
18 17 19 21 3 167.08 
18 17 19 22 3 -77.503 
9 17 15 16 18 -175.245 
15 19 17 18 19 178.818 
ITEM: TIMESTEP
650000
ITEM: NUMBER OF ENTRIES
66
ITEM: BOX BOUNDS pp pp pp
-1.0000000000000000e+02 1.0000000000000000e+02
-1.0000000000000000e+02 1.0000000000000000e+02
-1.0000000000000000e+02 1.0000000000000000e+02
ITEM: ENTRIES c_1[1] c_1[2] c_1[3] c_1[4] c_1[5] c_2[*] 
4 2 5 6 10 50.0908 
4 2 5 6 3 50.0908 
4 2 5 6 11 50.0908 
4 2 5 7 3 -134.072 
3 2 5 6 10 -70.532 
3 2 5 6 3 -70.532 
3 2 5 6 11 -70.532 
3 2 5 7 3 105.305 
1 2 5 6 10 172.324 
1 2 5 6 3 172.324 
1 2 5 6 11 172.324 
1 2 5 7 3 -11.8391 
6 5 7 8 1 -173.471 
6 5 7 8 2 -173.471 
2 5 7 8 2 10.7133 
6 5 7 9 2 -2.29261 
2 5 7 9 2 -178.108 
5 7 9 10 3 -17.9808 
8 7 9 10 3 153.801 
8 7 9 11 3 -96.4647 
8 7 9 15 3 28.391 
5 7 9 11 1 91.7533 
5 7 9 11 4 91.7533 
5 7 9 11 5 91.7533 
5 7 9 11 6 91.7533 
5 7 9 15 7 -143.391 
5 7 9 15 8 -143.391 
5 7 9 15 9 -143.391 
5 7 9 15 6 -143.391 
2 7 5 6 18 175.816 
10 9 11 12 12 -161.187 
10 9 11 13 12 -46.2553 
10 9 11 14 12 82.5707 
10 9 15 16 10 -165.312 
10 9 15 16 11 -165.312 
10 9 15 17 3 15.5308 
7 9 11 12 12 82.7345 
7 9 11 13 12 -162.334 
7 9 11 14 12 -33.5078 
5 9 7 8 19 171.782 
11 9 15 16 3 80.7471 
11 9 15 17 13 -98.4096 
11 9 15 17 14 -98.4096 
11 9 15 17 5 -98.4096 
11 9 15 17 6 -98.4096 
7 9 15 16 3 -41.5643 
7 9 15 17 15 139.279 
7 9 15 17 16 139.279 
7 9 15 17 17 139.279 
7 9 15 17 6 139.279 
14 11 9 15 12 -156.175 
13 11 9 15 12 74.999 
12 11 9 15 12 -39.9328 
16 15 17 18 1 171.742 
16 15 17 18 2 171.742 
9 15 17 18 2 -9.15043 
16 15 17 19 2 -11.2042 
9 15 17 19 2 167.903 
15 17 19 20 3 151.301 
15 17 19 21 3 -88.8271 
15 17 19 22 3 16.9424 
18 17 19 20 3 -31.9124 
18 17 19 21 3 87.9597 
18 17 19 22 3 -166.271 
9 17 15 16 18 -179.108 
15 19 17 18 19 176.787 
ITEM: TIMESTEP
660000
ITEM: NUMBER OF ENTRIES
66
ITEM: BOX BOUNDS pp pp pp
-1.0000000000000000e+02 1.0000000000000000e+02
-1.0000000000000000e+02 1.0000000000000000e+02
-1.0000000000000000e+02 1.0000000000000000e+02
ITEM: ENTRIES c_1[1] c_1[2] c_1[3] c_1[4] c_1[5] c_2[*] 
4 2 5 6 10 12.5712 
4 2 5 6 3 12.5712 
4 2 5 6 11 12.5712 
4 2 5 7 3 -172.886 
3 2 5 6 10 -104.179 
3 2 5 6 3 -104.179 
3 2 5 6 11 -104.179 
3 2 5 7 3 70.3636 
1 2 5 6 10 130.27 
1 2 5 6 3 130.27 
1 2 5 6 11 130.27 
1 2 5 7 3 -55.1869 
6 5 7 8 1 -176.086 
6 5 7 8 2 -176.086 
2 5 7 8 2 9.70038 
6 5 7 9 2 8.57921 
2 5 7 9 2 -165.634 
5 7 9 10 3 -50.8865 
8 7 9 10 3 133.535 
8 7 9 11 3 -100.137 
8 7 9 15 3 15.7969 
5 7 9 11 1 75.4413 
5 7 9 11 4 75.4413 
5 7 9 11 5 75.4413 
5 7 9 11 6 75.4413 
5 7 9 15 7 -168.625 
5 7 9 15 8 -168.625 
5 7 9 15 9 -168.625 
5 7 9 15 6 -168.625 
2 7 5 6 18 174.214 
10 9 11 12 12 162.371 
10 9 11 13 12 -70.204 
10 9 11 14 12 50.996 
10 9 15 16 10 -121.773 
10 9 15 16 11 -121.773 
10 9 15 17 3 59.3668 
7 9 11 12 12 39.8555 
7 9 11 13 12 167.28 
7 9 11 14 12 -71.52 
5 9 7 8 19 -175.578 
11 9 15 16 3 114.019 
11 9 15 17 13 -64.8404 
11 9 15 17 14 -64.8404 
11 9 15 17 5 -64.8404 
11 9 15 17 6 -64.8404 
7 9 15 16 3 -5.30543 
7 9 15 17 15 175.835 
7 9 15 17 16 175.835 
7 9 15 17 17 175.835 
7 9 15 17 6 175.835 
14 11 9 15 12 172.143 
13 11 9 15 12 50.9433 
12 11 9 15 12 -76.4813 
16 15 17 18 1 -176.238 
16 15 17 18 2 -176.238 
9 15 17 18 2 2.58736 
16 15 17 19 2 -3.26611 
9 15 17 19 2 175.559 
15 17 19 20 3 -18.1615 
15 17 19 21 3 94.4241 
15 17 19 22 3 -150.704 
18 17 19 20 3 155.134 
18 17 19 21 3 -92.2801 
18 17 19 22 3 22.592 
9 17 15 16 18 -178.825 
15 19 17 18 19 173.296 
ITEM: TIMESTEP
670000
ITEM: NUMBER OF ENTRIES
66
ITEM: BOX BOUNDS pp pp pp
-1.0000000000000000e+02 1.0000000000000000e+02
-1.0000000000000000e+02 1.0000000000000000e+02
-1.0000000000000000e+02 1.0000000000000000e+02
ITEM: ENTRIES c_1[1] c_1[2] c_1[3] c_1[4] c_1[5] c_2[*] 
4 2 5 6 10 -175.642 
4 2 5 6 3 -175.642 
4 2 5 6 11 -175.642 
4 2 5 7 3 8.23859 
3 2 5 6 10 60.7058 
3 2 5 6 3 60.7058 
3 2 5 6 11 60.7058 
3 2 5 7 3 -115.413 
1 2 5 6 10 -53.0797 
1 2 5 6 3 -53.0797 
1 2 5 6 11 -53.0797 
1 2 5 7 3 130.801 
6 5 7 8 1 175.223 
6 5 7 8 2 175.223 
2 5 7 8 2 -8.80957 
6 5 7 9 2 -16.0809 
2 5 7 9 2 159.887 
5 7 9 10 3 64.3063 
8 7 9 10 3 -127.91 
8 7 9 11 3 -20.1135 
8 7 9 15 3 107.509 
5 7 9 11 1 172.102 
5 7 9 11 4 172.102 
5 7 9 11 5 172.102 
5 7 9 11 6 172.102 
5 7 9 15 7 -60.2749 
5 7 9 15 8 -60.2749 
5 7 9 15 9 -60.2749 
5 7 9 15 6 -60.2749 
2 7 5 6 18 -175.968 
10 9 11 12 12 146.298 
10 9 11 13 12 -91.7899 
10 9 11 14 12 27.2975 
10 9 15 16 10 -169.228 
10 9 15 16 11 -169.228 
10 9 15 17 3 10.1658 
7 9 11 12 12 36.0819 
7 9 11 13 12 157.994 
7 9 11 14 12 -82.9184 
5 9 7 8 19 167.784 
11 9 15 16 3 75.6545 